ITEM: TIMESTEP
5000
ITEM: NUMBER OF ATOMS
108000
ITEM: BOX BOUNDS pp pp pp
-1.28149 122.661
-1.28149 122.661
-1.28149 122.661
ITEM: ATOMS id type x y z 
515 1 3.05649 2.88462 2.82655 
8 1 3.01271 0.91778 0.633398 
63 1 0.733842 3.05021 0.789794 
1805 1 2.53081 -1.12114 15.3701 
2745 1 44.2125 -1.14042 23.6389 
55864 1 60.5582 5.0445 17.1561 
11 1 9.53643 -1.15855 0.781846 
12 1 6.97971 0.427313 0.37635 
67 1 4.98861 2.58827 0.497836 
102 1 41.6788 5.37236 -1.21925 
519 1 6.79739 2.71356 2.5981 
59 1 59.0209 -1.1018 0.909467 
16 1 11.2189 0.891373 0.606688 
71 1 8.89981 2.81792 0.747421 
460 1 8.80678 0.514301 2.56264 
481 1 29.5709 -1.24896 5.11745 
20 1 15.2168 1.10514 0.841842 
75 1 13.1112 2.55156 0.897317 
464 1 13.6111 1.15512 3.16309 
527 1 15.2432 3.19222 2.94974 
358 1 58.5119 21.4782 -0.843545 
939 1 37.7845 -1.2619 9.02276 
24 1 19.3457 0.743443 0.822182 
79 1 17.2627 2.85332 0.71586 
468 1 17.1862 0.53896 2.87145 
1024 1 -1.22071 8.97182 9.24917 
531 1 19.1192 2.832 2.92006 
353 1 52.3286 19.3158 -1.05102 
28 1 23.4131 0.658122 0.543419 
83 1 21.4663 2.76245 0.678796 
472 1 21.4372 0.729457 2.81753 
535 1 23.4979 2.3832 3.1739 
32 1 27.4702 0.866685 0.913437 
87 1 25.4984 2.85943 0.823831 
476 1 25.6185 0.590871 2.86983 
539 1 27.3151 3.12862 2.97207 
480 1 29.5687 0.684794 2.7333 
285 1 43.9118 15.361 -0.856107 
1591 1 -1.21771 15.4124 11.1051 
454 1 -0.772669 0.547763 4.93304 
36 1 31.5056 0.62471 0.751417 
91 1 29.389 2.70347 0.892935 
484 1 33.8054 1.02098 2.72598 
95 1 33.8732 2.66104 0.675284 
543 1 31.5261 2.70483 2.72197 
27 1 25.4974 -1.00251 0.563904 
3437 1 -1.22876 8.69632 29.3462 
40 1 35.8415 0.515431 0.858707 
488 1 37.7573 0.696406 2.79408 
99 1 37.7499 2.89776 0.592518 
547 1 35.9688 2.6457 2.68222 
2749 1 48.2649 -1.15791 23.3451 
2279 1 27.7921 -1.22512 19.6563 
44 1 40.0099 0.658662 0.821771 
103 1 42.724 2.72695 1.12687 
551 1 40.3715 2.78476 2.96968 
56101 1 60.6435 19.3792 15.2309 
47 1 46.6069 -1.09198 0.498287 
55321 1 60.3792 27.6781 6.80359 
48 1 44.67 0.913376 0.853743 
107 1 46.4602 2.89882 1.0899 
1397 1 46.024 -1.2238 13.2473 
555 1 44.8645 2.61511 3.31231 
496 1 46.4101 0.601888 3.05512 
871 1 -1.08187 27.9646 2.82102 
52 1 48.3129 0.795409 0.5875 
111 1 50.3915 2.80943 0.744063 
559 1 48.4712 2.79335 2.88271 
500 1 50.8463 0.767493 2.79518 
56 1 52.8571 0.448091 1.2253 
115 1 54.66 2.48223 0.393033 
504 1 54.7285 1.0108 2.91252 
563 1 52.5428 2.55545 3.2551 
814 1 -1.19188 25.5155 5.20606 
60 1 57.0545 0.827924 0.826103 
119 1 58.8527 2.86362 0.547868 
567 1 56.7842 2.6827 2.66151 
911 1 8.8881 -1.2362 8.93233 
1654 1 -0.995771 21.2454 13.1979 
3150 1 59.0842 27.7277 25.6158 
1833 1 31.8026 -1.17901 15.189 
3360 1 58.5533 25.7546 27.6861 
907 1 4.81225 -1.22301 9.05486 
68 1 3.00175 4.43775 0.71561 
123 1 1.03455 7.51589 1.18874 
575 1 2.8689 6.6214 2.90217 
106 1 46.2011 5.08586 -1.13729 
947 1 46.2894 -1.22563 9.07488 
72 1 7.25014 4.51247 0.518543 
127 1 4.51691 7.04227 0.760997 
516 1 5.23716 4.9694 2.27508 
579 1 7.1633 6.89306 2.70015 
357 1 56.373 19.8933 -1.28288 
76 1 10.8839 4.71173 0.937164 
131 1 9.09086 6.97249 0.827117 
520 1 8.98551 4.9095 2.90033 
583 1 11.3061 6.78097 2.72376 
2709 1 7.32876 -1.23524 23.8703 
80 1 14.9729 4.76016 0.799231 
135 1 12.9539 6.4088 0.458362 
524 1 13.0437 4.89226 2.93761 
587 1 15.4363 6.9375 2.57563 
84 1 19.021 4.75949 0.605388 
139 1 17.2951 7.10868 0.687447 
528 1 17.0866 5.00536 2.85887 
591 1 19.3716 6.84923 2.92898 
532 1 21.4328 4.58179 2.62971 
1264 1 -0.880557 25.1995 8.86401 
3165 1 27.5322 -1.27318 27.6962 
88 1 23.0958 4.62077 0.37467 
143 1 21.5034 7.00162 1.07583 
595 1 23.5841 6.86292 3.03341 
147 1 25.5543 6.94523 0.826295 
92 1 27.3238 5.19985 0.888486 
536 1 24.9603 4.73071 2.52283 
599 1 28.0577 7.01645 2.95589 
540 1 30.1359 5.07575 2.68436 
151 1 29.8446 7.16321 0.737698 
96 1 31.6978 4.60295 0.533831 
155 1 33.6951 7.06418 0.726593 
603 1 31.9232 6.946 2.63697 
544 1 33.6708 4.79844 2.76192 
2265 1 13.5208 -1.22782 21.6449 
100 1 35.7325 5.12793 0.825059 
159 1 38.2077 6.73218 0.787784 
548 1 37.9781 4.87083 2.93248 
607 1 36.0346 6.7918 3.11341 
55711 1 60.5483 23.584 11.3236 
104 1 40.0693 4.72104 0.741563 
163 1 42.1134 6.94432 1.21449 
552 1 42.0387 5.07827 2.95162 
611 1 40.1158 6.94569 3.14318 
54124 1 60.5977 8.89054 0.853962 
108 1 44.1362 4.90558 0.996684 
167 1 45.9845 7.12669 0.591603 
615 1 44.4505 6.86359 2.93514 
556 1 46.318 4.95976 2.93689 
269 1 27.8453 14.7147 -0.928931 
112 1 48.1386 4.83299 0.904641 
171 1 50.257 6.60914 0.449998 
560 1 50.2094 4.84089 2.68068 
619 1 48.2567 6.84111 2.58113 
501 1 50.3675 -1.23343 5.0041 
116 1 52.6897 4.91464 0.833698 
175 1 54.2619 7.17973 0.630693 
2221 1 -0.961155 27.7278 15.3799 
564 1 54.4025 4.51366 2.80544 
623 1 52.0724 7.08895 2.69408 
2041 1 -1.08872 14.8968 14.919 
120 1 57.0009 5.03767 0.887964 
179 1 58.5818 6.99755 0.837941 
568 1 59.0553 4.875 2.81508 
627 1 56.2483 6.96884 2.67068 
475 1 23.4214 -1.24983 3.50192 
334 1 33.8388 21.2142 -1.13393 
222 1 41.6809 13.206 -1.12614 
128 1 2.95787 9.15421 1.47771 
183 1 0.779275 10.8611 1.00078 
572 1 0.710493 9.13686 3.44675 
635 1 2.81274 11.3187 3.1976 
217 1 35.9019 11.0935 -1.09301 
132 1 7.10905 8.68577 0.360167 
187 1 4.76971 11.2281 0.846099 
576 1 5.25992 9.06547 2.60147 
64 1 -1.18548 5.19049 0.792457 
105 1 44.323 2.84092 -1.17737 
136 1 11.3629 9.40508 0.771757 
191 1 8.65367 10.7942 0.683088 
580 1 9.35706 9.20195 2.6499 
643 1 11.0187 11.208 2.75969 
43 1 42.3031 -0.921174 1.12931 
140 1 14.6688 8.67562 0.606958 
195 1 13.2692 11.1788 0.477297 
647 1 15.2957 10.7315 2.5152 
584 1 13.5294 8.62712 3.11288 
144 1 19.6138 8.82543 0.941762 
199 1 17.5153 10.7544 0.558966 
588 1 17.2557 8.84698 2.7218 
651 1 19.4126 10.8779 3.10575 
54181 1 60.5967 10.9454 -1.15054 
2707 1 4.94861 -1.1202 25.2409 
148 1 23.4424 8.64414 0.969292 
203 1 21.2467 11.1521 1.09917 
207 1 25.3475 10.7859 0.509722 
2944 1 -1.15413 16.7853 25.6834 
55594 1 60.6796 17.4025 13.1564 
152 1 27.5202 9.00132 0.775308 
596 1 25.292 8.99073 3.13103 
659 1 27.3716 10.9877 3.38901 
211 1 29.7181 10.7928 0.524523 
600 1 29.8049 9.35311 2.88506 
1355 1 3.02906 -1.24547 11.1466 
304 1 -1.20922 21.6044 0.733427 
156 1 31.9794 9.16779 1.00485 
215 1 33.7557 11.3921 0.734804 
663 1 31.6556 11.2254 2.90128 
55714 1 60.4292 25.4767 13.4013 
122 1 0.90357 8.80586 -0.996608 
604 1 33.7825 9.6606 2.82004 
160 1 36.0433 8.52599 1.02 
219 1 38.375 10.9546 0.933814 
608 1 38.0348 9.07698 3.27558 
2273 1 21.4865 -1.22839 21.484 
181 1 -1.17895 10.9082 -1.12629 
164 1 39.949 8.67488 0.532817 
223 1 42.1922 11.3179 0.653963 
612 1 42.1298 9.06858 2.80724 
671 1 40.1671 11.0505 3.21648 
2941 1 -1.11222 15.2868 23.238 
325 1 23.0897 19.3681 -1.15963 
168 1 44.1507 9.00957 1.1149 
227 1 45.833 10.9437 0.816696 
616 1 46.4447 8.81604 3.09655 
675 1 44.1382 11.3376 2.92015 
1354 1 -1.10487 0.588456 12.9816 
55414 1 60.5842 4.8378 13.0771 
172 1 48.0057 9.10463 0.73947 
231 1 50.2312 10.9733 0.640892 
679 1 47.9731 11.2182 2.74415 
56764 1 60.6021 4.81383 25.287 
176 1 52.0454 8.65663 0.882904 
235 1 54.0775 10.5177 0.347766 
683 1 52.4906 11.0346 2.57817 
624 1 54.331 8.82639 2.57777 
1815 1 13.7695 -1.10111 17.096 
180 1 56.4841 8.79595 0.548897 
239 1 58.6181 11.037 0.778715 
628 1 58.5164 9.02683 2.72305 
687 1 56.3192 10.631 2.56994 
1711 1 -0.838953 23.3092 11.0012 
188 1 3.02023 13.2192 0.917741 
243 1 0.911998 15.3865 0.579676 
632 1 0.773637 13.1899 3.05708 
695 1 2.97145 15.2722 2.68763 
226 1 45.8663 12.9533 -0.932878 
192 1 6.90378 12.8887 0.666854 
247 1 4.7225 15.2487 0.464252 
636 1 4.9862 13.5125 2.5631 
699 1 7.12076 15.1287 3.09134 
382 1 21.7225 25.869 -1.07289 
196 1 10.9632 12.9098 0.206873 
251 1 9.15533 15.1219 0.327597 
703 1 11.1275 15.5014 2.36662 
640 1 9.07947 13.2545 2.35294 
54961 1 60.6045 3.04401 6.95881 
200 1 15.3167 13.4127 0.333279 
255 1 12.9757 15.4197 0.521548 
644 1 13.1942 13.2138 2.19329 
707 1 14.9937 15.2924 2.4868 
381 1 19.1893 23.5355 -1.23514 
338 1 37.6267 21.4699 -0.909064 
204 1 19.0996 13.0336 1.40045 
259 1 17.2205 15.1969 0.566225 
648 1 16.7186 13.2072 2.82762 
711 1 19.4888 15.2392 2.84772 
54634 1 60.55 13.4348 5.25196 
208 1 23.5106 13.5625 1.05453 
263 1 21.2224 15.2111 0.700642 
652 1 21.4105 13.3403 2.88908 
715 1 23.7058 15.3238 2.93704 
318 1 17.3861 21.3185 -1.10761 
409 1 48.1269 23.4052 -0.996803 
656 1 25.4492 13.4324 3.07539 
212 1 27.5021 12.8112 1.23783 
267 1 25.5476 15.6449 0.646263 
719 1 27.6186 15.2016 2.59364 
660 1 29.7084 13.0424 2.89592 
1843 1 42.0017 -0.798907 17.332 
2293 1 42.2443 -1.00277 21.6518 
271 1 29.462 15.5645 0.811902 
216 1 31.4608 13.0863 0.575298 
723 1 31.6331 15.1858 2.84586 
664 1 34.1383 13.1087 2.84311 
1371 1 19.405 -1.19597 11.4039 
142 1 21.3355 8.65816 -0.979496 
275 1 34.6006 14.8293 0.669797 
220 1 36.3917 12.8285 1.1343 
279 1 37.5486 14.9641 0.463765 
668 1 38.1054 13.1413 3.37652 
727 1 36.0874 15.6033 2.7729 
1651 1 -0.944619 19.2883 11.069 
224 1 40.036 13.0536 1.0887 
283 1 41.8743 15.255 0.932522 
731 1 39.6239 15.4225 2.72521 
1921 1 -1.21092 6.74605 15.5915 
56494 1 60.2869 17.0462 21.2944 
228 1 44.1348 13.3823 1.07803 
287 1 46.2602 15.1843 1.08841 
676 1 46.0938 13.0958 2.87358 
735 1 43.8465 15.3404 3.14012 
232 1 48.4323 13.6202 0.35102 
291 1 50.6299 15.2433 0.809801 
680 1 50.3334 12.8602 2.70603 
739 1 48.4034 15.1389 2.6502 
236 1 52.3855 12.9912 0.831046 
295 1 54.3433 15.2502 0.942289 
743 1 52.305 15.055 2.91655 
684 1 54.8493 13.0485 3.0207 
240 1 56.3784 12.9846 0.847539 
299 1 58.2406 15.1189 0.950869 
688 1 58.7486 13.0276 2.89358 
747 1 56.52 14.9867 3.04296 
3211 1 -1.24574 6.52632 27.4904 
248 1 3.0084 17.3181 0.741488 
303 1 0.989161 19.5362 0.911476 
692 1 1.22181 17.4929 2.80233 
755 1 3.27321 19.284 3.01579 
1377 1 25.5823 -0.805837 13.1001 
252 1 6.9864 16.711 0.654729 
307 1 5.40104 18.7705 0.651285 
696 1 5.32171 17.2221 2.84673 
3153 1 2.7766 -0.983216 27.4662 
913 1 11.1788 -1.17386 6.44149 
1823 1 21.639 -0.97061 17.4092 
256 1 11.0374 17.4514 0.446602 
311 1 8.98051 19.3844 0.882231 
700 1 8.87465 17.0009 2.64604 
260 1 14.7901 17.5512 0.746257 
315 1 13.2761 19.7744 0.522504 
704 1 13.2021 17.5529 2.64575 
767 1 15.6215 19.3324 2.96654 
264 1 19.2126 17.117 0.258164 
319 1 17.3635 19.1478 0.522597 
708 1 17.1169 16.9707 2.3922 
771 1 19.0594 19.4762 2.58251 
2289 1 38.1816 -0.786086 21.8161 
1393 1 42.0904 -0.957058 13.0853 
268 1 23.3737 17.4593 0.947413 
323 1 21.3859 19.5452 0.934285 
712 1 21.4988 17.1782 2.72679 
327 1 25.3802 19.3648 0.758035 
775 1 23.7795 19.7428 3.10144 
2261 1 9.03923 -1.08809 21.5278 
38 1 37.9728 0.757568 -0.966074 
272 1 27.613 17.3647 0.434401 
716 1 25.9611 17.3241 2.64928 
779 1 27.4417 19.3503 2.85358 
331 1 29.2766 19.3681 0.396634 
720 1 29.8023 17.4719 2.63145 
923 1 21.4907 -1.23639 9.28293 
276 1 31.6961 17.2303 0.821533 
724 1 33.8983 17.4942 2.68491 
783 1 31.5769 19.3989 2.69906 
2727 1 25.2775 -0.715904 25.687 
1821 1 19.1534 -1.13168 15.2023 
335 1 33.6788 19.3342 0.693111 
280 1 35.8859 17.4282 0.413772 
339 1 38.0251 19.4049 0.882481 
787 1 35.8764 19.6658 3.04752 
728 1 37.8068 17.6955 2.60036 
284 1 39.6571 17.2934 0.399061 
343 1 41.8139 19.5143 0.442084 
732 1 42.0383 17.2986 2.65683 
791 1 40.1958 19.6346 2.66318 
288 1 44.4213 17.4399 1.24242 
347 1 46.2077 19.5148 0.990425 
736 1 46.2926 17.1941 3.02809 
795 1 44.0562 19.4495 2.66775 
292 1 48.1249 17.3671 0.702569 
351 1 50.0945 19.3544 0.943238 
740 1 49.9414 17.2799 3.0508 
799 1 47.9349 19.3783 3.11811 
57211 1 60.6523 7.05461 27.5199 
296 1 52.0835 17.4403 0.939303 
355 1 54.501 19.3059 0.912373 
744 1 54.4785 17.144 2.69472 
803 1 52.1229 19.4278 3.04123 
2 1 0.795767 0.72528 -0.880991 
300 1 56.3619 17.2773 0.584613 
807 1 56.7693 19.5121 3.1297 
359 1 58.3306 19.2176 0.501237 
748 1 58.5788 17.4274 2.99602 
511 1 -1.17293 2.74234 3.00004 
363 1 0.578228 23.6504 0.951182 
752 1 0.838096 21.4647 2.92797 
815 1 2.65157 23.6759 2.98906 
308 1 3.12362 21.7844 0.584275 
57064 1 60.5801 25.5548 25.6831 
312 1 6.97567 21.0155 0.79403 
367 1 5.31982 23.6716 0.891293 
756 1 4.75603 21.5952 2.85326 
372 1 7.12708 25.7007 1.1479 
55771 1 60.6796 27.4743 10.6559 
114 1 55.0714 5.06182 -1.01691 
2671 1 -1.15187 27.3815 19.1714 
316 1 11.2883 21.3643 0.911789 
371 1 9.32536 23.2293 0.934283 
760 1 9.09456 21.5743 2.98012 
823 1 11.1675 23.2386 2.93479 
820 1 9.31405 25.2342 3.05617 
320 1 15.3795 21.5479 0.688273 
375 1 13.1985 23.2543 0.805584 
764 1 13.4286 21.4423 2.7368 
827 1 15.3348 23.4207 2.7891 
324 1 19.4492 21.6772 0.893471 
379 1 17.5345 23.5497 0.793196 
768 1 17.3821 21.6921 2.85699 
831 1 19.5216 23.7139 2.74587 
384 1 19.4229 25.5709 0.75621 
2743 1 41.9536 -0.972405 25.7908 
328 1 23.6469 21.5913 0.479303 
383 1 21.7606 23.8108 1.05649 
772 1 21.647 21.7817 2.88358 
388 1 23.7677 25.7692 0.909166 
463 1 11.0394 -0.780924 3.07511 
835 1 23.8188 23.6228 2.83024 
55471 1 60.6558 6.92464 11.1217 
55534 1 60.3566 13.2301 12.9982 
332 1 27.404 21.181 0.746148 
387 1 25.5899 23.2222 0.504816 
776 1 25.7262 21.3854 2.98036 
839 1 27.1754 23.5171 2.46956 
3161 1 19.2856 -1.18902 27.8912 
391 1 29.2022 23.47 0.533011 
336 1 31.525 21.15 0.546448 
395 1 33.9689 23.6324 0.942888 
780 1 29.5085 21.2931 2.78524 
784 1 33.6383 21.3741 3.12735 
843 1 31.5642 23.2183 2.64933 
2285 1 34.2927 -1.01633 21.2772 
1825 1 23.4947 -1.14454 15.0756 
340 1 35.8857 21.4425 1.02556 
399 1 37.7983 23.4139 0.818871 
788 1 38.025 21.5892 2.70549 
847 1 35.6389 23.1329 3.07778 
2725 1 23.7127 -1.12554 23.4813 
344 1 40.0646 21.6423 0.63129 
403 1 42.2511 23.364 0.305251 
792 1 42.3008 21.4761 2.43981 
273 1 31.5834 15.1543 -1.07664 
51 1 50.2661 -1.06464 0.470694 
348 1 44.2386 21.0022 0.741923 
407 1 46.0752 23.0847 0.618976 
855 1 43.9714 23.6433 2.3967 
352 1 48.0446 21.1551 0.853421 
411 1 50.3906 23.4632 0.563676 
800 1 50.2232 21.2734 3.09251 
859 1 48.3973 23.3285 2.75894 
356 1 52.1894 21.1515 1.08049 
415 1 54.0929 23.4172 0.844883 
863 1 52.2443 23.1525 2.92539 
804 1 54.6639 21.3504 2.9249 
471 1 19.5658 -1.25549 2.69874 
261 1 19.5952 14.595 -1.24305 
360 1 56.6438 21.8554 0.750116 
419 1 58.6878 23.7222 0.914448 
808 1 58.7663 21.2966 2.76989 
867 1 56.713 23.3144 3.25813 
1373 1 21.6001 -0.873346 13.5222 
368 1 2.88618 25.3477 0.644995 
422 1 0.81111 27.677 0.774345 
873 1 2.5 27.2044 2.9251 
812 1 0.280763 25.8327 2.98811 
1385 1 33.84 -1.17833 13.2499 
55261 1 60.6412 23.6268 6.68508 
424 1 4.83957 27.4216 1.24308 
816 1 4.7008 25.3429 2.92631 
875 1 6.80327 27.7403 2.99813 
2821 1 -1.07386 6.96583 23.7332 
18 1 17.0556 0.548433 -1.08844 
56311 1 60.211 2.69242 19.3541 
376 1 11.2515 25.1765 1.10795 
426 1 8.77313 28.0091 0.76113 
54184 1 60.3048 13.0004 0.718748 
2757 1 56.7137 -1.26719 23.7458 
824 1 13.2939 25.347 3.22356 
380 1 15.0259 25.2863 0.769255 
428 1 13.2008 27.3389 0.969315 
879 1 15.4657 27.6364 2.89637 
430 1 17.2903 27.4277 0.516886 
828 1 17.1652 25.5711 2.58368 
881 1 19.1673 27.8293 2.41623 
55084 1 60.2501 13.222 8.90724 
56551 1 60.5028 19.2941 19.5585 
432 1 21.6614 27.4967 1.23777 
832 1 21.5706 25.5643 3.09126 
883 1 23.5684 28.1668 2.97345 
434 1 25.8735 27.6001 0.791402 
16227 1 54.4508 29.6255 23.2919 
56164 1 60.6604 25.6188 16.8834 
392 1 27.5004 25.4028 0.306041 
840 1 29.4827 25.1412 2.60877 
1841 1 40.0267 -1.15828 15.0088 
2299 1 48.5465 -1.01262 19.6805 
2257 1 4.90619 -1.11507 21.3581 
2104 1 -0.671116 21.4941 17.1962 
2283 1 31.9016 -1.26426 19.2143 
396 1 31.4294 25.1166 0.429225 
436 1 29.4551 27.2349 0.432256 
438 1 33.7708 27.0629 0.591766 
844 1 34.3623 25.3637 2.90975 
887 1 31.8433 27.5553 2.63652 
54304 1 60.5706 21.4496 0.930344 
400 1 35.8599 25.3899 0.303398 
440 1 37.8425 27.3684 1.09838 
848 1 37.8564 25.3116 2.8878 
889 1 35.7425 27.8082 2.8382 
473 1 21.1602 -1.18123 5.14713 
55924 1 60.3516 8.62748 16.997 
202 1 21.3529 12.6776 -1.18198 
1837 1 35.7287 -1.00142 15.081 
404 1 40.0725 26.1842 0.325949 
442 1 41.974 28.0812 0.700024 
891 1 39.9755 27.7184 2.64099 
852 1 42.1771 25.7872 3.1643 
364 1 -1.10949 25.7717 0.878087 
90 1 29.425 4.92391 -1.12739 
4 1 -0.975399 0.522034 1.30934 
1829 1 27.7372 -1.27894 15.5387 
408 1 43.7658 25.8472 0.718789 
444 1 46.4277 27.899 0.822993 
893 1 44.4692 27.7579 2.7438 
113 1 52.5209 2.27609 -1.11668 
242 1 0.736321 17.4012 -1.10097 
1835 1 34.0958 -1.11566 17.2088 
354 1 53.975 21.5621 -1.23778 
412 1 48.2956 25.4905 0.743972 
446 1 50.0538 27.3642 0.989273 
895 1 48.0314 27.5126 2.95602 
2307 1 56.1193 -0.989303 19.1043 
416 1 52.2312 25.2858 0.548093 
448 1 54.2884 27.2062 1.14411 
864 1 54.507 25.3615 3.01587 
1391 1 40.0549 -1.19864 10.9883 
897 1 52.3512 27.3414 2.96541 
15 1 13.5044 -1.19199 1.33887 
2614 1 -1.01727 25.1179 21.2819 
917 1 14.6126 -1.08879 6.64259 
420 1 56.6039 25.5225 0.642601 
450 1 58.7618 27.6147 0.902626 
868 1 58.5662 25.6778 2.8853 
2314 1 -1.18534 4.51956 21.785 
452 1 0.93939 0.356478 2.92411 
2287 1 36.2841 -0.907268 19.4539 
55474 1 60.5928 8.88373 13.1062 
902 1 0.89951 0.503879 7.01717 
965 1 2.6202 2.74504 6.5696 
513 1 0.927674 2.683 4.46151 
458 1 2.95221 0.555674 4.72662 
456 1 5.06352 0.617008 2.42456 
462 1 6.57073 0.752857 4.58085 
906 1 4.89963 0.681121 6.85662 
969 1 6.79599 2.75214 6.67052 
30 1 29.4314 0.818475 -1.27555 
523 1 11.0647 2.8051 2.93422 
3064 1 -1.15968 25.7221 25.4888 
571 1 -1.09165 7.03426 2.92684 
466 1 11.1719 0.948972 4.93097 
521 1 8.74384 2.52091 4.66423 
910 1 8.61451 0.620306 7.01755 
56491 1 60.3624 15.2895 19.4427 
470 1 15.5322 1.024 4.92566 
914 1 12.9664 0.718325 6.97361 
977 1 14.8726 2.64999 7.23191 
525 1 13.0203 3.02198 4.79015 
2291 1 39.9066 -0.881664 19.7019 
1714 1 -1.2572 25.3147 12.8087 
474 1 19.4474 0.764371 4.72594 
529 1 17.276 2.78264 4.88471 
918 1 17.2135 0.436266 7.22639 
981 1 19.1277 2.58428 7.1787 
478 1 23.2094 0.641828 5.20671 
985 1 23.3019 2.80025 6.98343 
533 1 21.1404 2.98917 5.33731 
537 1 25.6226 3.16193 5.0314 
922 1 21.1527 0.723307 7.2652 
2753 1 52.3812 -1.03969 23.5482 
482 1 27.4326 0.669098 5.28167 
926 1 25.1377 0.819072 7.08883 
541 1 29.3459 2.31902 4.69897 
903 1 0.574957 -1.01955 9.04577 
2301 1 50.5945 -1.04094 21.558 
935 1 33.7895 -1.24997 8.84134 
930 1 29.3364 0.802613 7.04343 
486 1 31.6395 1.03657 4.83794 
934 1 33.4421 0.527487 6.81804 
993 1 31.7477 2.74214 7.26563 
545 1 33.7758 2.53251 4.97095 
490 1 35.6551 0.440589 4.68594 
549 1 37.982 2.64874 4.58334 
938 1 38.1277 0.864203 7.22795 
997 1 35.7776 2.8146 6.85243 
492 1 42.5115 0.853284 3.04217 
494 1 40.3704 0.452428 4.74819 
553 1 42.2841 2.58374 5.09332 
942 1 42.3142 0.728614 6.90317 
1001 1 39.937 2.94516 6.87366 
498 1 44.3809 0.74554 5.10403 
557 1 46.6001 3.0724 5.10095 
946 1 46.516 0.522159 7.1467 
1005 1 44.5525 2.52709 7.1316 
502 1 48.6323 1.1095 4.88805 
561 1 50.3539 3.08524 5.20913 
950 1 50.4662 0.622798 7.28822 
1009 1 48.4433 3.0252 7.18561 
56941 1 60.3722 15.1282 23.8126 
506 1 52.7638 0.406232 5.14618 
565 1 54.7955 2.53977 5.56282 
954 1 54.6603 0.356888 7.44598 
1013 1 52.2274 2.80976 7.0558 
56881 1 60.3972 10.9656 23.1877 
508 1 58.9116 0.754029 2.78063 
510 1 56.9466 0.452602 5.15481 
569 1 58.732 2.75313 5.0096 
958 1 58.8457 0.574949 7.31361 
1017 1 57.1142 2.63637 6.98784 
512 1 0.868602 4.84183 2.52971 
518 1 2.66393 4.825 4.65801 
573 1 0.571521 6.78312 5.15443 
962 1 1.12095 4.96631 6.89355 
1025 1 2.96278 7.11514 6.48472 
401 1 39.7855 23.7545 -1.12503 
517 1 5.01999 2.94986 4.60429 
522 1 7.04691 4.68506 4.59009 
577 1 5.1996 6.55424 4.64147 
966 1 4.72082 4.55908 6.63864 
1029 1 7.08919 6.88729 6.63348 
973 1 10.9173 2.70046 6.77667 
526 1 10.9762 4.97342 5.10588 
581 1 9.16895 6.88636 5.07527 
970 1 8.90478 4.72526 6.74077 
1033 1 11.27 7.07757 7.19666 
530 1 15.4286 4.64163 5.33548 
585 1 13.6242 6.61689 4.83363 
974 1 12.7531 4.67779 7.1486 
1037 1 15.4924 6.8452 6.99466 
534 1 19.3095 4.66063 4.97165 
589 1 17.2247 6.48494 5.12273 
978 1 17.7809 4.58307 7.21977 
1041 1 19.5352 6.6716 6.86624 
538 1 23.0323 4.83544 5.00933 
593 1 21.0653 7.00546 4.92686 
982 1 21.5282 5.15661 7.12237 
1045 1 23.6247 6.95064 6.86045 
597 1 25.7209 6.92008 4.81892 
986 1 25.5721 5.17436 6.98272 
989 1 27.4604 2.48322 7.43456 
542 1 27.5759 4.96652 4.95783 
1049 1 27.4205 7.36211 7.2124 
601 1 30.0347 6.39329 5.05939 
990 1 29.3436 4.30453 6.73235 
546 1 31.7052 4.19434 5.1559 
605 1 33.8142 7.25267 4.88686 
994 1 33.9986 4.98115 7.14322 
1053 1 31.9477 7.222 7.10679 
550 1 35.8856 4.93369 4.91587 
609 1 38.0598 6.63627 4.98938 
998 1 38.0344 4.66179 6.74409 
1057 1 35.7362 7.00096 6.82165 
554 1 40.0153 4.79798 4.88318 
613 1 42.4947 7.09069 5.04871 
1002 1 41.8959 4.71939 7.10851 
1061 1 39.9538 6.82747 6.93286 
558 1 44.1205 4.7242 5.00918 
617 1 46.1383 6.88284 5.04139 
1006 1 46.2952 4.91843 6.92819 
1065 1 44.4793 7.2023 6.99427 
562 1 48.3784 5.21956 4.74787 
621 1 50.6145 6.99402 4.66072 
1010 1 50.1976 5.02421 7.03434 
1069 1 48.1921 6.90562 6.76095 
566 1 52.6406 4.57467 4.9158 
625 1 54.3715 6.55526 4.59404 
1014 1 54.5005 4.82724 6.98371 
1073 1 52.5187 6.96675 6.87169 
570 1 56.5275 4.38407 4.67889 
629 1 58.6482 6.90341 4.9956 
1018 1 58.3908 5.0247 7.18752 
1077 1 56.3242 6.5889 6.58474 
3120 1 56.9012 25.4729 25.4953 
54964 1 60.4278 5.00303 8.85223 
234 1 54.4141 12.9475 -0.991059 
578 1 3.18123 8.97736 4.8044 
633 1 0.84772 11.0346 5.18844 
1022 1 0.65203 8.82897 7.18075 
1085 1 2.94276 11.3942 6.83676 
639 1 6.87306 11.2722 3.17438 
582 1 7.47917 8.76284 4.41894 
637 1 4.64229 11.2573 4.68265 
1026 1 5.45213 8.87515 6.26718 
1089 1 6.9412 11.2738 6.86531 
586 1 11.1209 8.99252 4.829 
641 1 9.09176 11.0357 4.77748 
1030 1 9.13721 9.33358 6.81808 
1093 1 10.9793 11.3017 6.72858 
590 1 15.2962 8.80309 4.90822 
645 1 13.0317 10.7166 4.65177 
1034 1 13.2501 8.8863 6.86887 
1097 1 15.2772 11.2506 6.88964 
594 1 19.2721 8.90075 4.83519 
649 1 17.0809 11.0165 4.69002 
1038 1 17.5486 9.00286 7.15854 
1101 1 19.3239 10.9913 7.31853 
1042 1 21.2295 8.70995 7.03402 
592 1 21.6417 9.25057 3.02699 
655 1 23.6022 11.4068 2.66518 
598 1 23.3351 9.30884 5.29487 
653 1 21.2707 11.1176 5.3682 
1105 1 23.3264 11.3872 6.97467 
657 1 25.3144 11.1579 5.18082 
602 1 27.976 8.79206 4.9659 
1046 1 25.5567 9.18492 6.79956 
1109 1 27.642 11.5856 6.86033 
661 1 29.7435 11.3716 4.98358 
1050 1 30.2132 9.33934 6.98026 
606 1 31.6617 8.81896 4.68283 
665 1 33.7453 11.3264 5.14349 
1054 1 33.9147 9.1742 7.10049 
1113 1 31.9732 11.0979 7.33147 
667 1 35.9782 11.0671 2.99792 
610 1 35.7658 8.98981 5.01218 
669 1 37.7832 10.9001 5.33737 
1058 1 37.8791 8.88106 7.3598 
1117 1 35.7085 10.9677 7.02735 
614 1 39.806 8.92012 5.16395 
673 1 42.0796 10.7829 4.84724 
1062 1 41.9849 9.08123 6.77101 
1121 1 40.1885 11.2197 6.8683 
618 1 44.1257 8.9972 4.713 
677 1 46.0163 11.0573 5.01296 
1066 1 46.1975 9.53751 6.94395 
1125 1 43.8253 11.351 6.87712 
620 1 50.0355 9.02709 2.93023 
622 1 48.3389 9.21709 4.90077 
681 1 50.4456 11.0379 4.87274 
1070 1 50.3462 8.96358 6.89994 
1129 1 48.4236 11.085 6.95237 
626 1 52.34 9.10527 4.55515 
685 1 54.5959 10.9481 4.59353 
1074 1 54.46 8.66404 6.3186 
1133 1 52.5471 11.1042 6.57896 
630 1 56.5375 8.91877 4.66725 
689 1 58.5006 11.2137 4.77676 
1078 1 58.7037 8.93305 6.71243 
1137 1 56.3166 11.0322 6.74828 
638 1 2.91757 13.4185 4.90543 
693 1 0.483904 15.3063 4.95829 
1082 1 0.752631 12.98 6.91882 
1145 1 3.01426 15.2511 6.83219 
642 1 7.2247 13.2889 4.90871 
697 1 4.94617 15.2958 4.6477 
1086 1 4.76474 13.4934 6.66586 
1149 1 7.44387 15.3566 7.00198 
646 1 11.2992 13.1486 4.41863 
701 1 9.4491 14.9033 4.54812 
1090 1 9.22493 13.6477 7.0813 
1153 1 11.3185 14.9449 6.50053 
650 1 14.7266 13.0412 4.46304 
705 1 13.2486 15.22 5.08355 
1094 1 13.2481 12.9679 6.58972 
1157 1 15.2833 14.6473 6.67122 
654 1 19.3284 13.2252 4.69581 
709 1 17.1666 15.1744 4.86274 
1098 1 17.5864 12.9852 6.72761 
1161 1 19.191 15.4684 6.96615 
658 1 23.3897 13.4561 5.12752 
713 1 21.5664 15.5343 4.81961 
1102 1 21.4976 13.5757 7.09332 
1165 1 23.5435 15.3288 6.98863 
662 1 27.8171 13.4632 4.97326 
717 1 25.9729 15.5548 5.04743 
1106 1 25.498 13.333 7.02894 
1169 1 27.5025 15.2698 7.32779 
721 1 29.8114 15.371 4.94363 
1110 1 29.5974 13.3163 7.16737 
666 1 31.9153 13.0885 4.91799 
1114 1 33.7051 13.5951 7.09585 
1173 1 31.8091 15.1842 6.98025 
725 1 34.025 15.4137 4.56172 
670 1 35.8242 13.2483 5.2919 
729 1 37.9166 15.4301 5.17614 
1118 1 38.0113 13.0785 7.16099 
1177 1 35.6203 15.1617 7.17602 
672 1 42.1414 13.0457 3.09176 
674 1 40.1771 13.2385 4.90736 
733 1 41.7699 15.3836 4.73533 
1122 1 41.9238 13.3974 7.2048 
1181 1 39.8759 15.2182 7.10552 
678 1 44.0526 13.3309 5.01841 
737 1 46.3349 15.0022 4.87341 
1126 1 46.1335 13.2063 6.79331 
1185 1 44.2566 15.1257 6.95332 
682 1 48.1706 13.0024 5.09205 
741 1 49.8833 15.3582 4.83393 
1130 1 50.1567 13.48 7.12912 
1189 1 48.1685 15.2049 6.93485 
686 1 52.1026 13.3031 5.03976 
745 1 54.0722 15.4003 4.79737 
1134 1 54.4561 13.6554 6.86161 
1193 1 52.0829 15.4513 6.90469 
423 1 3.12593 27.5092 -1.17952 
690 1 56.5022 13.1511 5.12139 
749 1 58.18 15.4303 5.11654 
1138 1 58.3173 12.8355 7.05219 
1197 1 56.321 15.5293 7.02837 
753 1 0.791094 19.3441 4.74556 
1142 1 0.985413 17.3586 7.01801 
1205 1 2.83997 19.2308 6.85483 
698 1 3.03462 17.1547 4.8959 
759 1 7.15795 19.5358 2.958 
702 1 7.05732 17.0685 5.04258 
757 1 5.22664 18.9676 5.05223 
1146 1 5.2916 17.2076 7.12911 
1209 1 6.99646 19.4241 6.9395 
763 1 11.2843 19.4257 2.37297 
706 1 10.8971 17.4121 4.62399 
761 1 9.00848 18.9927 4.73218 
1150 1 9.28463 17.2059 7.02064 
1213 1 10.8835 19.2449 6.78482 
710 1 15.0939 17.2856 4.92757 
765 1 12.972 19.4773 4.70745 
1154 1 13.5354 17.0351 7.10433 
1217 1 15.3654 19.2208 6.91884 
714 1 19.3811 17.446 4.55693 
769 1 17.254 19.2355 5.12789 
1158 1 17.034 17.1496 6.79199 
1221 1 19.3045 19.5176 6.89191 
718 1 23.429 17.3831 4.98748 
773 1 21.312 19.6187 4.83568 
1162 1 21.477 17.7022 6.75031 
1225 1 23.1873 19.4922 6.86592 
722 1 27.9892 17.4194 4.53663 
777 1 25.4258 19.3646 5.19105 
1166 1 25.5161 17.4396 7.06004 
1229 1 27.5765 19.7267 7.02917 
1170 1 29.3366 17.7211 6.97707 
781 1 29.4676 19.7008 4.94299 
726 1 31.8563 17.1496 4.98178 
785 1 33.6369 19.3418 4.74548 
1174 1 33.8222 17.2334 6.75941 
1233 1 31.6487 19.2234 6.87129 
730 1 35.8163 17.3157 4.93733 
789 1 38.1612 19.3775 4.70534 
1178 1 37.9225 17.603 7.07266 
1237 1 35.6413 19.2698 6.82347 
734 1 39.808 17.2677 5.14811 
793 1 42.0154 19.3133 4.73486 
1182 1 42.0156 17.5594 7.10337 
1241 1 40.0935 19.9007 6.58243 
738 1 43.8502 16.9407 5.2465 
797 1 45.8982 19.0424 4.96904 
1245 1 44.0985 19.4878 7.20073 
742 1 48.1571 17.6772 5.2186 
801 1 50.2295 19.5456 5.16687 
1190 1 50.1156 17.2425 6.95594 
1249 1 48.5022 19.6932 7.22917 
746 1 52.2498 17.2892 4.76204 
805 1 54.66 19.5691 4.96369 
1194 1 54.2617 17.3593 6.9253 
1253 1 52.4557 19.0922 6.81594 
1321 1 -1.14932 27.7038 7.27773 
750 1 56.3041 17.3232 4.73576 
809 1 58.6992 19.16 5.27446 
1198 1 59.0062 17.3238 7.20037 
1257 1 56.7081 19.19 6.87626 
15775 1 50.5447 29.5726 19.3291 
813 1 0.730411 23.5352 4.85684 
1202 1 0.817859 21.5384 7.19242 
1265 1 2.87714 23.8006 7.36484 
758 1 2.70989 21.4754 5.08655 
55531 1 60.6548 10.7162 10.9498 
819 1 6.98295 23.4565 2.89993 
762 1 6.76549 21.2176 5.14797 
817 1 4.79168 23.4495 5.04249 
1206 1 4.49632 21.5308 6.99005 
1269 1 6.68124 23.6406 6.92427 
1266 1 4.77507 25.4815 7.27418 
766 1 11.0174 21.4362 4.81682 
821 1 8.90155 23.6296 5.15399 
1210 1 8.86589 21.4186 6.88962 
1273 1 11.1277 23.1485 7.33802 
770 1 15.044 21.3876 5.15034 
825 1 12.9282 23.4571 5.38886 
1214 1 13.2714 20.865 6.98517 
1277 1 15.1384 23.8056 7.17806 
774 1 18.9889 21.48 4.78864 
829 1 17.0879 23.6194 4.90708 
1218 1 17.1214 21.428 6.79727 
1281 1 19.0959 23.5603 6.74982 
834 1 19.2551 25.7372 4.73611 
778 1 23.3221 22.1415 4.79739 
833 1 21.0537 23.6175 4.82801 
1222 1 21.2091 21.3981 6.9552 
1285 1 23.5045 23.6378 7.06962 
782 1 27.5463 21.4528 5.07089 
837 1 25.6033 23.6814 5.04855 
1226 1 25.4326 21.5081 6.93849 
1289 1 27.6904 23.314 7.32929 
1230 1 29.8656 21.6256 6.99589 
786 1 31.6454 21.4838 4.87632 
841 1 29.5742 23.3186 4.49039 
845 1 33.8537 23.3371 4.8426 
1293 1 31.7843 23.8912 6.74896 
1234 1 33.5427 21.2248 7.10549 
790 1 36.014 21.5646 5.17009 
849 1 37.9605 23.6385 4.92469 
1238 1 37.7346 21.4113 7.23717 
1297 1 35.8961 23.6399 6.95452 
850 1 36.0679 25.7529 5.0098 
851 1 40.2587 23.9867 2.24903 
794 1 40.3187 21.7015 4.51593 
853 1 42.5745 23.4752 4.6374 
1242 1 42.2888 21.5765 6.76398 
1301 1 39.9365 23.6008 6.66142 
796 1 46.1841 21.8505 2.79728 
798 1 44.5566 21.1998 5.14484 
857 1 46.3898 23.4489 4.87072 
1246 1 46.4313 21.4035 7.22053 
1305 1 44.244 23.3481 6.81194 
860 1 50.3232 25.2353 2.8169 
802 1 48.3584 21.4578 4.98295 
861 1 50.0587 23.576 5.15536 
1250 1 50.584 21.281 7.23505 
1309 1 48.518 23.4356 7.43823 
1310 1 49.9871 25.684 6.84268 
806 1 52.3587 21.5015 5.07898 
865 1 54.428 23.4388 5.09219 
1254 1 54.5348 21.3617 7.02878 
1313 1 52.2848 23.5227 7.02233 
1314 1 54.5126 25.3322 6.90692 
810 1 57.1094 21.2683 4.89767 
869 1 59.1328 23.6192 4.52186 
1258 1 58.6803 21.8908 6.73366 
1317 1 56.4081 23.3977 7.07351 
872 1 0.830756 27.8948 5.39101 
1262 1 0.752412 25.3112 6.87864 
818 1 2.8001 25.6842 5.02197 
1323 1 3.0206 27.7682 7.19582 
2267 1 15.5868 -1.27086 19.1876 
3169 1 36.15 -1.12645 27.7884 
822 1 7.20856 25.5855 4.68371 
874 1 4.74514 27.8006 5.13632 
1325 1 6.60959 27.4348 7.00942 
877 1 11.1843 27.8791 2.92467 
826 1 10.9511 25.2884 5.26976 
876 1 9.12587 27.3771 4.60276 
1270 1 8.94462 25.8956 6.99553 
1327 1 11.2522 27.5805 6.72347 
16201 1 0.743766 29.4043 23.1732 
830 1 15.5492 25.7569 5.03683 
878 1 13.2588 27.6434 4.90655 
1274 1 13.0177 25.5324 7.36878 
1329 1 15.2718 27.8971 7.22806 
964 1 -1.2448 4.6789 9.11083 
880 1 17.2755 27.8685 5.07129 
1278 1 17.3102 25.8451 6.92432 
1331 1 19.5821 27.5542 6.81927 
2101 1 -1.07768 19.2969 15.3251 
2751 1 50.2171 -1.12354 25.6437 
838 1 23.338 25.8319 5.0682 